[
  {
    "name": "Hidrogênio",
    "symbol": "H",
    "atomicNumber": 1,
    "atomicMass": "1.008",
    "group": 1,
    "period": 1,
    "block": "s",
    "category": "Não Metal",
    "meltingPoint": "-259.14 °C",
    "boilingPoint": "-252.87 °C",
    "density": "0.08988 g/L",
    "electronConfiguration": "1s1"
  },
  {
    "name": "Hélio",
    "symbol": "He",
    "atomicNumber": 2,
    "atomicMass": "4.002602(2)",
    "group": 18,
    "period": 1,
    "block": "s",
    "category": "Gás Nobre",
    "meltingPoint": "-272.2 °C (26 atm)",
    "boilingPoint": "-268.93 °C",
    "density": "0.1786 g/L",
    "electronConfiguration": "1s2"
  },
  {
    "name": "Lítio",
    "symbol": "Li",
    "atomicNumber": 3,
    "atomicMass": "6.941(2)",
    "group": 1,
    "period": 2,
    "block": "s",
    "category": "Metal Alcalino",
    "meltingPoint": "180.54 °C",
    "boilingPoint": "1342 °C",
    "density": "0.534 g/cm³",
    "electronConfiguration": "[He] 2s1"
  },
  {
    "name": "Berílio",
    "symbol": "Be",
    "atomicNumber": 4,
    "atomicMass": "9.012182(3)",
    "group": 2,
    "period": 2,
    "block": "s",
    "category": "Metal Alcalino-Terroso",
    "meltingPoint": "1287 °C",
    "boilingPoint": "2471 °C",
    "density": "1.85 g/cm³",
    "electronConfiguration": "[He] 2s2"
  },
  {
    "name": "Boro",
    "symbol": "B",
    "atomicNumber": 5,
    "atomicMass": "10.811(7)",
    "group": 13,
    "period": 2,
    "block": "p",
    "category": "Semimetal",
    "meltingPoint": "2075 °C",
    "boilingPoint": "4000 °C",
    "density": "2.34 g/cm³",
    "electronConfiguration": "[He] 2s2 2p1"
  },
  {
    "name": "Carbono",
    "symbol": "C",
    "atomicNumber": 6,
    "atomicMass": "12.0107(8)",
    "group": 14,
    "period": 2,
    "block": "p",
    "category": "Não Metal",
    "meltingPoint": "3550 °C",
    "boilingPoint": "4827 °C",
    "density": "2.2670 g/cm³",
    "electronConfiguration": "[He] 2s2 2p2"
  },
  {
    "name": "Nitrogênio",
    "symbol": "N",
    "atomicNumber": 7,
    "atomicMass": "14.0067(2)",
    "group": 15,
    "period": 2,
    "block": "p",
    "category": "Não Metal",
    "meltingPoint": "-210 °C",
    "boilingPoint": "-195.79 °C",
    "density": "1.251 g/L",
    "electronConfiguration": "[He] 2s2 2p3"
  },
  {
    "name": "Oxigênio",
    "symbol": "O",
    "atomicNumber": 8,
    "atomicMass": "15.9994(3)",
    "group": 16,
    "period": 2,
    "block": "p",
    "category": "Não Metal",
    "meltingPoint": "-218.79 °C",
    "boilingPoint": "-182.962 °C",
    "density": "1.429 g/L",
    "electronConfiguration": "[He] 2s2 2p4"
  },
  {
    "name": "Flúor",
    "symbol": "F",
    "atomicNumber": 9,
    "atomicMass": "18.9984032(5)",
    "group": 17,
    "period": 2,
    "block": "p",
    "category": "Não Metal",
    "meltingPoint": "-219.67 °C",
    "boilingPoint": "-188.11 °C",
    "density": "1.696 g/L",
    "electronConfiguration": "[He] 2s2 2p5"
  },
  {
    "name": "Neônio",
    "symbol": "Ne",
    "atomicNumber": 10,
    "atomicMass": "20.1797(6)",
    "group": 18,
    "period": 2,
    "block": "p",
    "category": "Gás Nobre",
    "meltingPoint": "-248.59 °C",
    "boilingPoint": "-246.08 °C",
    "density": "0.9002 g/L",
    "electronConfiguration": "[He] 2s2 2p6"
  },
  {
    "name": "Sódio",
    "symbol": "Na",
    "atomicNumber": 11,
    "atomicMass": "22.98976928(2)",
    "group": 1,
    "period": 3,
    "block": "s",
    "category": "Metal Alcalino",
    "meltingPoint": "97.72 °C",
    "boilingPoint": "883 °C",
    "density": "0.971 g/cm³",
    "electronConfiguration": "[Ne] 3s1"
  },
  {
    "name": "Magnésio",
    "symbol": "Mg",
    "atomicNumber": 12,
    "atomicMass": "24.3050(6)",
    "group": 2,
    "period": 3,
    "block": "s",
    "category": "Metal Alcalino-Terroso",
    "meltingPoint": "650 °C",
    "boilingPoint": "1090 °C",
    "density": "1.738 g/cm³",
    "electronConfiguration": "[Ne] 3s2"
  },
  {
    "name": "Alumínio",
    "symbol": "Al",
    "atomicNumber": 13,
    "atomicMass": "26.9815386(8)",
    "group": 13,
    "period": 3,
    "block": "p",
    "category": "Metal",
    "meltingPoint": "660.37 °C",
    "boilingPoint": "2467 °C",
    "density": "2.70 g/cm³",
    "electronConfiguration": "[Ne] 3s2 3p1"
  },
  {
    "name": "Silício",
    "symbol": "Si",
    "atomicNumber": 14,
    "atomicMass": "28.0855(3)",
    "group": 14,
    "period": 3,
    "block": "p",
    "category": "Semimetal",
    "meltingPoint": "1414 °C",
    "boilingPoint": "3265 °C",
    "density": "2.3296 g/cm³",
    "electronConfiguration": "[Ne] 3s2 3p2"
  },
  {
    "name": "Fósforo",
    "symbol": "P",
    "atomicNumber": 15,
    "atomicMass": "30.973762(2)",
    "group": 15,
    "period": 3,
    "block": "p",
    "category": "Não Metal",
    "meltingPoint": "44.1 °C",
    "boilingPoint": "280.5 °C",
    "density": "1.82 g/cm³",
    "electronConfiguration": "[Ne] 3s2 3p3"
  },
  {
    "name": "Enxofre",
    "symbol": "S",
    "atomicNumber": 16,
    "atomicMass": "32.065(5)",
    "group": 16,
    "period": 3,
    "block": "p",
    "category": "Não Metal",
    "meltingPoint": "115.21 °C",
    "boilingPoint": "444.72 °C",
    "density": "2.067 g/cm³",
    "electronConfiguration": "[Ne] 3s2 3p4"
  },
  {
    "name": "Cloro",
    "symbol": "Cl",
    "atomicNumber": 17,
    "atomicMass": "35.453(2)",
    "group": 17,
    "period": 3,
    "block": "p",
    "category": "Não Metal",
    "meltingPoint": "-101.5 °C",
    "boilingPoint": "-34.04 °C",
    "density": "3.2 g/L",
    "electronConfiguration": "[Ne] 3s2 3p5"
  },
  {
    "name": "Argônio",
    "symbol": "Ar",
    "atomicNumber": 18,
    "atomicMass": "39.948(1)",
    "group": 18,
    "period": 3,
    "block": "p",
    "category": "Gás Nobre",
    "meltingPoint": "-189.34 °C",
    "boilingPoint": "-185.85 °C",
    "density": "1.784 g/L",
    "electronConfiguration": "[Ne] 3s2 3p6"
  },
  {
    "name": "Potássio",
    "symbol": "K",
    "atomicNumber": 19,
    "atomicMass": "39.0983(1)",
    "group": 1,
    "period": 4,
    "block": "s",
    "category": "Metal Alcalino",
    "meltingPoint": "63.65 °C",
    "boilingPoint": "774 °C",
    "density": "0.862 g/cm³",
    "electronConfiguration": "[Ar] 4s1"
  },
  {
    "name": "Cálcio",
    "symbol": "Ca",
    "atomicNumber": 20,
    "atomicMass": "40.078(4)",
    "group": 2,
    "period": 4,
    "block": "s",
    "category": "Metal Alcalino-Terroso",
    "meltingPoint": "842 °C",
    "boilingPoint": "1484 °C",
    "density": "1.55 g/cm³",
    "electronConfiguration": "[Ar] 4s2"
  },
  {
    "name": "Escândio",
    "symbol": "Sc",
    "atomicNumber": 21,
    "atomicMass": "44.955912(6)",
    "group": 3,
    "period": 4,
    "block": "d",
    "category": "Metal de Transição",
    "meltingPoint": "1541 °C",
    "boilingPoint": "2836 °C",
    "density": "2.985 g/cm³",
    "electronConfiguration": "[Ar] 3d1 4s2"
  },
  {
    "name": "Titânio",
    "symbol": "Ti",
    "atomicNumber": 22,
    "atomicMass": "47.867(1)",
    "group": 4,
    "period": 4,
    "block": "d",
    "category": "Metal de Transição",
    "meltingPoint": "1668 °C",
    "boilingPoint": "3287 °C",
    "density": "4.506 g/cm³",
    "electronConfiguration": "[Ar] 3d2 4s2"
  },
  {
    "name": "Vanádio",
    "symbol": "V",
    "atomicNumber": 23,
    "atomicMass": "50.9415(1)",
    "group": 5,
    "period": 4,
    "block": "d",
    "category": "Metal de Transição",
    "meltingPoint": "1910 °C",
    "boilingPoint": "3407 °C",
    "density": "6.11 g/cm³",
    "electronConfiguration": "[Ar] 3d3 4s2"
  },
  {
    "name": "Crômio",
    "symbol": "Cr",
    "atomicNumber": 24,
    "atomicMass": "51.9961(6)",
    "group": 6,
    "period": 4,
    "block": "d",
    "category": "Metal de Transição",
    "meltingPoint": "1907 °C",
    "boilingPoint": "2671 °C",
    "density": "7.15 g/cm³",
    "electronConfiguration": "[Ar] 3d5 4s1"
  },
  {
    "name": "Manganês",
    "symbol": "Mn",
    "atomicNumber": 25,
    "atomicMass": "54.938045(5)",
    "group": 7,
    "period": 4,
    "block": "d",
    "category": "Metal de Transição",
    "meltingPoint": "1246 °C",
    "boilingPoint": "2061 °C",
    "density": "7.44 g/cm³",
    "electronConfiguration": "[Ar] 3d5 4s2"
  },
  {
    "name": "Ferro",
    "symbol": "Fe",
    "atomicNumber": 26,
    "atomicMass": "55.845(2)",
    "group": 8,
    "period": 4,
    "block": "d",
    "category": "Metal de Transição",
    "meltingPoint": "1538 °C",
    "boilingPoint": "2861 °C",
    "density": "7.874 g/cm³",
    "electronConfiguration": "[Ar] 3d6 4s2"
  },
  {
    "name": "Cobalto",
    "symbol": "Co",
    "atomicNumber": 27,
    "atomicMass": "58.933195(5)",
    "group": 9,
    "period": 4,
    "block": "d",
    "category": "Metal de Transição",
    "meltingPoint": "1495 °C",
    "boilingPoint": "2927 °C",
    "density": "8.86 g/cm³",
    "electronConfiguration": "[Ar] 3d7 4s2"
  },
  {
    "name": "Níquel",
    "symbol": "Ni",
    "atomicNumber": 28,
    "atomicMass": "58.6934(4)",
    "group": 10,
    "period": 4,
    "block": "d",
    "category": "Metal de Transição",
    "meltingPoint": "1455 °C",
    "boilingPoint": "2913 °C",
    "density": "8.912 g/cm³",
    "electronConfiguration": "[Ar] 3d8 4s2"
  },
  {
    "name": "Cobre",
    "symbol": "Cu",
    "atomicNumber": 29,
    "atomicMass": "63.546(3)",
    "group": 11,
    "period": 4,
    "block": "d",
    "category": "Metal de Transição",
    "meltingPoint": "1084.62 °C",
    "boilingPoint": "2562 °C",
    "density": "8.96 g/cm³",
    "electronConfiguration": "[Ar] 3d10 4s1"
  },
  {
    "name": "Zinco",
    "symbol": "Zn",
    "atomicNumber": 30,
    "atomicMass": "65.38(2)",
    "group": 12,
    "period": 4,
    "block": "d",
    "category": "Metal de Transição",
    "meltingPoint": "419.58 °C",
    "boilingPoint": "907 °C",
    "density": "7.134 g/cm³",
    "electronConfiguration": "[Ar] 3d10 4s2"
  },
  {
    "name": "Gálio",
    "symbol": "Ga",
    "atomicNumber": 31,
    "atomicMass": "69.723(1)",
    "group": 13,
    "period": 4,
    "block": "p",
    "category": "Metal",
    "meltingPoint": "29.76 °C",
    "boilingPoint": "2204 °C",
    "density": "5.907 g/cm³",
    "electronConfiguration": "[Ar] 3d10 4s2 4p1"
  },
  {
    "name": "Germanio",
    "symbol": "Ge",
    "atomicNumber": 32,
    "atomicMass": "72.63(1)",
    "group": 14,
    "period": 4,
    "block": "p",
    "category": "Semimetal",
    "meltingPoint": "938.25 °C",
    "boilingPoint": "2833 °C",
    "density": "5.323 g/cm³",
    "electronConfiguration": "[Ar] 3d10 4s2 4p2"
  },
  {
    "name": "Arsênio",
    "symbol": "As",
    "atomicNumber": 33,
    "atomicMass": "74.92160(2)",
    "group": 15,
    "period": 4,
    "block": "p",
    "category": "Semimetal",
    "meltingPoint": "817 °C",
    "boilingPoint": "613 °C",
    "density": "5.727 g/cm³",
    "electronConfiguration": "[Ar] 3d10 4s2 4p3"
  },
  {
    "name": "Selênio",
    "symbol": "Se",
    "atomicNumber": 34,
    "atomicMass": "78.96(3)",
    "group": 16,
    "period": 4,
    "block": "p",
    "category": "Não Metal",
    "meltingPoint": "217 °C",
    "boilingPoint": "685 °C",
    "density": "4.819 g/cm³",
    "electronConfiguration": "[Ar] 3d10 4s2 4p4"
  },
  {
    "name": "Bromo",
    "symbol": "Br",
    "atomicNumber": 35,
    "atomicMass": "79.904(1)",
    "group": 17,
    "period": 4,
    "block": "p",
    "category": "Não Metal",
    "meltingPoint": "-7.2 °C",
    "boilingPoint": "58.8 °C",
    "density": "3.14 g/L",
    "electronConfiguration": "[Ar] 3d10 4s2 4p5"
  },
  {
    "name": "Criptônio",
    "symbol": "Kr",
    "atomicNumber": 36,
    "atomicMass": "83.798(2)",
    "group": 18,
    "period": 4,
    "block": "p",
    "category": "Gás Nobre",
    "meltingPoint": "-157.36 °C",
    "boilingPoint": "-153.22 °C",
    "density": "3.733 g/L",
    "electronConfiguration": "[Ar] 3d10 4s2 4p6"
  },
  {
    "name": "Rubídio",
    "symbol": "Rb",
    "atomicNumber": 37,
    "atomicMass": "85.4678(3)",
    "group": 1,
    "period": 5,
    "block": "s",
    "category": "Metal Alcalino",
    "meltingPoint": "38.89 °C",
    "boilingPoint": "688 °C",
    "density": "1.532 g/cm³",
    "electronConfiguration": "[Kr] 5s1"
  },
  {
    "name": "Estrôncio",
    "symbol": "Sr",
    "atomicNumber": 38,
    "atomicMass": "87.62(1)",
    "group": 2,
    "period": 5,
    "block": "s",
    "category": "Metal Alcalino-Terroso",
    "meltingPoint": "769 °C",
    "boilingPoint": "1384 °C",
    "density": "2.54 g/cm³",
    "electronConfiguration": "[Kr] 5s2"
  },
  {
    "name": "Ítrio",
    "symbol": "Y",
    "atomicNumber": 39,
    "atomicMass": "88.90585(2)",
    "group": 3,
    "period": 5,
    "block": "d",
    "category": "Metal de Transição",
    "meltingPoint": "1526 °C",
    "boilingPoint": "3336 °C",
    "density": "4.472 g/cm³",
    "electronConfiguration": "[Kr] 4d1 5s2"
  },
  {
    "name": "Zircônio",
    "symbol": "Zr",
    "atomicNumber": 40,
    "atomicMass": "91.224(2)",
    "group": 4,
    "period": 5,
    "block": "d",
    "category": "Metal de Transição",
    "meltingPoint": "1855 °C",
    "boilingPoint": "4409 °C",
    "density": "6.506 g/cm³",
    "electronConfiguration": "[Kr] 4d2 5s2"
  },
  {
    "name": "Nióbio",
    "symbol": "Nb",
    "atomicNumber": 41,
    "atomicMass": "92.90638(2)",
    "group": 5,
    "period": 5,
    "block": "d",
    "category": "Metal de Transição",
    "meltingPoint": "2468 °C",
    "boilingPoint": "4742 °C",
    "density": "8.57 g/cm³",
    "electronConfiguration": "[Kr] 4d4 5s1"
  },
  {
    "name": "Molibdênio",
    "symbol": "Mo",
    "atomicNumber": 42,
    "atomicMass": "95.96(2)",
    "group": 6,
    "period": 5,
    "block": "d",
    "category": "Metal de Transição",
    "meltingPoint": "2617 °C",
    "boilingPoint": "4612 °C",
    "density": "10.22 g/cm³",
    "electronConfiguration": "[Kr] 4d5 5s1"
  },
  {
    "name": "Tecnécio",
    "symbol": "Tc",
    "atomicNumber": 43,
    "atomicMass": "[98]",
    "group": 7,
    "period": 5,
    "block": "d",
    "category": "Metal de Transição",
    "meltingPoint": "2200 °C",
    "boilingPoint": "4877 °C",
    "density": "11 g/cm³",
    "electronConfiguration": "[Kr] 4d5 5s2"
  },
  {
    "name": "Rutênio",
    "symbol": "Ru",
    "atomicNumber": 44,
    "atomicMass": "101.07(2)",
    "group": 8,
    "period": 5,
    "block": "d",
    "category": "Metal de Transição",
    "meltingPoint": "2250 °C",
    "boilingPoint": "3900 °C",
    "density": "12.37 g/cm³",
    "electronConfiguration": "[Kr] 4d7 5s1"
  },
  {
    "name": "Ródio",
    "symbol": "Rh",
    "atomicNumber": 45,
    "atomicMass": "102.90550(2)",
    "group": 9,
    "period": 5,
    "block": "d",
    "category": "Metal de Transição",
    "meltingPoint": "1966 °C",
    "boilingPoint": "3727 °C",
    "density": "12.41 g/cm³",
    "electronConfiguration": "[Kr] 4d8 5s1"
  },
  {
    "name": "Paládio",
    "symbol": "Pd",
    "atomicNumber": 46,
    "atomicMass": "106.42(1)",
    "group": 10,
    "period": 5,
    "block": "d",
    "category": "Metal de Transição",
    "meltingPoint": "1554.9 °C",
    "boilingPoint": "2963 °C",
    "density": "12.02 g/cm³",
    "electronConfiguration": "[Kr] 4d10"
  },
  {
    "name": "Prata",
    "symbol": "Ag",
    "atomicNumber": 47,
    "atomicMass": "107.8682(2)",
    "group": 11,
    "period": 5,
    "block": "d",
    "category": "Metal de Transição",
    "meltingPoint": "961.78 °C",
    "boilingPoint": "2162 °C",
    "density": "10.501 g/cm³",
    "electronConfiguration": "[Kr] 4d10 5s1"
  },
  {
    "name": "Cádmio",
    "symbol": "Cd",
    "atomicNumber": 48,
    "atomicMass": "112.411(8)",
    "group": 12,
    "period": 5,
    "block": "d",
    "category": "Metal de Transição",
    "meltingPoint": "321.07 °C",
    "boilingPoint": "767 °C",
    "density": "8.69 g/cm³",
    "electronConfiguration": "[Kr] 4d10 5s2"
  },
  {
    "name": "Índio",
    "symbol": "In",
    "atomicNumber": 49,
    "atomicMass": "114.818(3)",
    "group": 13,
    "period": 5,
    "block": "p",
    "category": "Metal",
    "meltingPoint": "156.6 °C",
    "boilingPoint": "2072 °C",
    "density": "7.31 g/cm³",
    "electronConfiguration": "[Kr] 4d10 5s2 5p1"
  },
  {
    "name": "Estanho",
    "symbol": "Sn",
    "atomicNumber": 50,
    "atomicMass": "118.710(7)",
    "group": 14,
    "period": 5,
    "block": "p",
    "category": "Metal",
    "meltingPoint": "231.93 °C",
    "boilingPoint": "2602 °C",
    "density": "7.287 g/cm³",
    "electronConfiguration": "[Kr] 4d10 5s2 5p2"
  },
  {
    "name": "Antimônio",
    "symbol": "Sb",
    "atomicNumber": 51,
    "atomicMass": "121.760(1)",
    "group": 15,
    "period": 5,
    "block": "p",
    "category": "Semimetal",
    "meltingPoint": "630.63 °C",
    "boilingPoint": "1587 °C",
    "density": "6.685 g/cm³",
    "electronConfiguration": "[Kr] 4d10 5s2 5p3"
  },
  {
    "name": "Telúrio",
    "symbol": "Te",
    "atomicNumber": 52,
    "atomicMass": "127.60(3)",
    "group": 16,
    "period": 5,
    "block": "p",
    "category": "Semimetal",
    "meltingPoint": "449.51 °C",
    "boilingPoint": "988 °C",
    "density": "6.232 g/cm³",
    "electronConfiguration": "[Kr] 4d10 5s2 5p4"
  },
  {
    "name": "Iodo",
    "symbol": "I",
    "atomicNumber": 53,
    "atomicMass": "126.90447(3)",
    "group": 17,
    "period": 5,
    "block": "p",
    "category": "Não Metal",
    "meltingPoint": "113.7 °C",
    "boilingPoint": "184.3 °C",
    "density": "4.93 g/cm³",
    "electronConfiguration": "[Kr] 4d10 5s2 5p5"
  },
  {
    "name": "Xenônio",
    "symbol": "Xe",
    "atomicNumber": 54,
    "atomicMass": "131.293(6)",
    "group": 18,
    "period": 5,
    "block": "p",
    "category": "Gás Nobre",
    "meltingPoint": "-111.9 °C",
    "boilingPoint": "-108.12 °C",
    "density": "5.894 g/L",
    "electronConfiguration": "[Kr] 4d10 5s2 5p6"
  },
  {
    "name": "Césio",
    "symbol": "Cs",
    "atomicNumber": 55,
    "atomicMass": "132.9054519(2)",
    "group": 1,
    "period": 6,
    "block": "s",
    "category": "Metal Alcalino",
    "meltingPoint": "28.44 °C",
    "boilingPoint": "671 °C",
    "density": "1.873 g/cm³",
    "electronConfiguration": "[Xe] 6s1"
  },
  {
    "name": "Bário",
    "symbol": "Ba",
    "atomicNumber": 56,
    "atomicMass": "137.327(7)",
    "group": 2,
    "period": 6,
    "block": "s",
    "category": "Metal Alcalino-Terroso",
    "meltingPoint": "727 °C",
    "boilingPoint": "1897 °C",
    "density": "3.594 g/cm³",
    "electronConfiguration": "[Xe] 6s2"
  },
  {
    "name": "Lantânio",
    "symbol": "La",
    "atomicNumber": 57,
    "atomicMass": "138.90547(7)",
    "group": 3,
    "period": 6,
    "block": "f",
    "category": "Lantanídeo",
    "meltingPoint": "920 °C",
    "boilingPoint": "3464 °C",
    "density": "6.145 g/cm³",
    "electronConfiguration": "[Xe] 5d1 6s2"
  },
  {
    "name": "Cério",
    "symbol": "Ce",
    "atomicNumber": 58,
    "atomicMass": "140.116(1)",
    "group": 3,
    "period": 6,
    "block": "f",
    "category": "Lantanídeo",
    "meltingPoint": "795 °C",
    "boilingPoint": "3257 °C",
    "density": "6.77 g/cm³",
    "electronConfiguration": "[Xe] 4f1 5d1 6s2"
  },
  {
    "name": "Praseodímio",
    "symbol": "Pr",
    "atomicNumber": 59,
    "atomicMass": "140.90765(2)",
    "group": 3,
    "period": 6,
    "block": "f",
    "category": "Lantanídeo",
    "meltingPoint": "935 °C",
    "boilingPoint": "3127 °C",
    "density": "6.77 g/cm³",
    "electronConfiguration": "[Xe] 4f3 6s2"
  },
  {
    "name": "Neodímio",
    "symbol": "Nd",
    "atomicNumber": 60,
    "atomicMass": "144.242(3)",
    "group": 3,
    "period": 6,
    "block": "f",
    "category": "Lantanídeo",
    "meltingPoint": "1021 °C",
    "boilingPoint": "3074 °C",
    "density": "7.01 g/cm³",
    "electronConfiguration": "[Xe] 4f4 6s2"
  },
  {
    "name": "Promécio",
    "symbol": "Pm",
    "atomicNumber": 61,
    "atomicMass": "[145]",
    "group": 3,
    "period": 6,
    "block": "f",
    "category": "Lantanídeo",
    "meltingPoint": "1100 °C",
    "boilingPoint": "3000 °C",
    "density": "7.26 g/cm³",
    "electronConfiguration": "[Xe] 4f5 6s2"
  },
  {
    "name": "Samário",
    "symbol": "Sm",
    "atomicNumber": 62,
    "atomicMass": "150.36(2)",
    "group": 3,
    "period": 6,
    "block": "f",
    "category": "Lantanídeo",
    "meltingPoint": "1072 °C",
    "boilingPoint": "1900 °C",
    "density": "7.52 g/cm³",
    "electronConfiguration": "[Xe] 4f6 6s2"
  },
  {
    "name": "Európio",
    "symbol": "Eu",
    "atomicNumber": 63,
    "atomicMass": "151.964(1)",
    "group": 3,
    "period": 6,
    "block": "f",
    "category": "Lantanídeo",
    "meltingPoint": "822 °C",
    "boilingPoint": "1597 °C",
    "density": "5.24 g/cm³",
    "electronConfiguration": "[Xe] 4f7 6s2"
  },
  {
    "name": "Gadolínio",
    "symbol": "Gd",
    "atomicNumber": 64,
    "atomicMass": "157.25(3)",
    "group": 3,
    "period": 6,
    "block": "f",
    "category": "Lantanídeo",
    "meltingPoint": "1311 °C",
    "boilingPoint": "3233 °C",
    "density": "7.90 g/cm³",
    "electronConfiguration": "[Xe] 4f7 5d1 6s2"
  },
  {
    "name": "Térbio",
    "symbol": "Tb",
    "atomicNumber": 65,
    "atomicMass": "158.92535(2)",
    "group": 3,
    "period": 6,
    "block": "f",
    "category": "Lantanídeo",
    "meltingPoint": "1360 °C",
    "boilingPoint": "3041 °C",
    "density": "8.23 g/cm³",
    "electronConfiguration": "[Xe] 4f9 6s2"
  },
  {
    "name": "Disprósio",
    "symbol": "Dy",
    "atomicNumber": 66,
    "atomicMass": "162.500(1)",
    "group": 3,
    "period": 6,
    "block": "f",
    "category": "Lantanídeo",
    "meltingPoint": "1412 °C",
    "boilingPoint": "2567 °C",
    "density": "8.55 g/cm³",
    "electronConfiguration": "[Xe] 4f10 6s2"
  },
  {
    "name": "Hólmio",
    "symbol": "Ho",
    "atomicNumber": 67,
    "atomicMass": "164.93032(2)",
    "group": 3,
    "period": 6,
    "block": "f",
    "category": "Lantanídeo",
    "meltingPoint": "1474 °C",
    "boilingPoint": "2700 °C",
    "density": "8.80 g/cm³",
    "electronConfiguration": "[Xe] 4f11 6s2"
  },
  {
    "name": "Érbio",
    "symbol": "Er",
    "atomicNumber": 68,
    "atomicMass": "167.259(3)",
    "group": 3,
    "period": 6,
    "block": "f",
    "category": "Lantanídeo",
    "meltingPoint": "1529 °C",
    "boilingPoint": "2868 °C",
    "density": "9.07 g/cm³",
    "electronConfiguration": "[Xe] 4f12 6s2"
  },
  {
    "name": "Túlio",
    "symbol": "Tm",
    "atomicNumber": 69,
    "atomicMass": "168.93421(2)",
    "group": 3,
    "period": 6,
    "block": "f",
    "category": "Lantanídeo",
    "meltingPoint": "1545 °C",
    "boilingPoint": "1727 °C",
    "density": "9.32 g/cm³",
    "electronConfiguration": "[Xe] 4f13 6s2"
  },
  {
    "name": "Itérbio",
    "symbol": "Yb",
    "atomicNumber": 70,
    "atomicMass": "173.04(1)",
    "group": 3,
    "period": 6,
    "block": "f",
    "category": "Lantanídeo",
    "meltingPoint": "824 °C",
    "boilingPoint": "1196 °C",
    "density": "6.90 g/cm³",
    "electronConfiguration": "[Xe] 4f14 6s2"
  },
  {
    "name": "Lutécio",
    "symbol": "Lu",
    "atomicNumber": 71,
    "atomicMass": "174.967(1)",
    "group": 3,
    "period": 6,
    "block": "d",
    "category": "Metal de Transição",
    "meltingPoint": "1652 °C",
    "boilingPoint": "3315 °C",
    "density": "9.84 g/cm³",
    "electronConfiguration": "[Xe] 4f14 5d1 6s2"
  },
  {
    "name": "Háfnio",
    "symbol": "Hf",
    "atomicNumber": 72,
    "atomicMass": "178.49(2)",
    "group": 4,
    "period": 6,
    "block": "d",
    "category": "Metal de Transição",
    "meltingPoint": "2233 °C",
    "boilingPoint": "4603 °C",
    "density": "13.31 g/cm³",
    "electronConfiguration": "[Xe] 4f14 5d2 6s2"
  },
  {
    "name": "Tântalo",
    "symbol": "Ta",
    "atomicNumber": 73,
    "atomicMass": "180.94788(2)",
    "group": 5,
    "period": 6,
    "block": "d",
    "category": "Metal de Transição",
    "meltingPoint": "3017 °C",
    "boilingPoint": "5458 °C",
    "density": "16.654 g/cm³",
    "electronConfiguration": "[Xe] 4f14 5d3 6s2"
  },
  {
    "name": "Tungstênio",
    "symbol": "W",
    "atomicNumber": 74,
    "atomicMass": "183.84(1)",
    "group": 6,
    "period": 6,
    "block": "d",
    "category": "Metal de Transição",
    "meltingPoint": "3422 °C",
    "boilingPoint": "5555 °C",
    "density": "19.25 g/cm³",
    "electronConfiguration": "[Xe] 4f14 5d4 6s2"
  },
  {
    "name": "Rênio",
    "symbol": "Re",
    "atomicNumber": 75,
    "atomicMass": "186.207(1)",
    "group": 7,
    "period": 6,
    "block": "d",
    "category": "Metal de Transição",
    "meltingPoint": "3186 °C",
    "boilingPoint": "5596 °C",
    "density": "21.02 g/cm³",
    "electronConfiguration": "[Xe] 4f14 5d5 6s2"
  },
  {
    "name": "Ósmio",
    "symbol": "Os",
    "atomicNumber": 76,
    "atomicMass": "190.23(3)",
    "group": 8,
    "period": 6,
    "block": "d",
    "category": "Metal de Transição",
    "meltingPoint": "3033 °C",
    "boilingPoint": "5012 °C",
    "density": "22.59 g/cm³",
    "electronConfiguration": "[Xe] 4f14 5d6 6s2"
  },
  {
    "name": "Irídio",
    "symbol": "Ir",
    "atomicNumber": 77,
    "atomicMass": "192.217(3)",
    "group": 9,
    "period": 6,
    "block": "d",
    "category": "Metal de Transição",
    "meltingPoint": "2466 °C",
    "boilingPoint": "4428 °C",
    "density": "22.56 g/cm³",
    "electronConfiguration": "[Xe] 4f14 5d7 6s2"
  },
  {
    "name": "Platina",
    "symbol": "Pt",
    "atomicNumber": 78,
    "atomicMass": "195.084(9)",
    "group": 10,
    "period": 6,
    "block": "d",
    "category": "Metal de Transição",
    "meltingPoint": "1768.3 °C",
    "boilingPoint": "3825 °C",
    "density": "21.46 g/cm³",
    "electronConfiguration": "[Xe] 4f14 5d9 6s1"
  },
  {
    "name": "Ouro",
    "symbol": "Au",
    "atomicNumber": 79,
    "atomicMass": "196.966569(4)",
    "group": 11,
    "period": 6,
    "block": "d",
    "category": "Metal de Transição",
    "meltingPoint": "1064.18 °C",
    "boilingPoint": "2700 °C",
    "density": "19.282 g/cm³",
    "electronConfiguration": "[Xe] 4f14 5d10 6s1"
  },
  {
    "name": "Mercúrio",
    "symbol": "Hg",
    "atomicNumber": 80,
    "atomicMass": "200.59(2)",
    "group": 12,
    "period": 6,
    "block": "d",
    "category": "Metal de Transição",
    "meltingPoint": "-38.83 °C",
    "boilingPoint": "356.73 °C",
    "density": "13.5336 g/cm³",
    "electronConfiguration": "[Xe] 4f14 5d10 6s2"
  },
  {
    "name": "Tálio",
    "symbol": "Tl",
    "atomicNumber": 81,
    "atomicMass": "204.3833(2)",
    "group": 13,
    "period": 6,
    "block": "p",
    "category": "Metal",
    "meltingPoint": "304 °C",
    "boilingPoint": "1457 °C",
    "density": "11.85 g/cm³",
    "electronConfiguration": "[Xe] 4f14 5d10 6s2 6p1"
  },
  {
    "name": "Chumbo",
    "symbol": "Pb",
    "atomicNumber": 82,
    "atomicMass": "207.2(1)",
    "group": 14,
    "period": 6,
    "block": "p",
    "category": "Metal",
    "meltingPoint": "327.46 °C",
    "boilingPoint": "1749 °C",
    "density": "11.34 g/cm³",
    "electronConfiguration": "[Xe] 4f14 5d10 6s2 6p2"
  },
  {
    "name": "Bismuto",
    "symbol": "Bi",
    "atomicNumber": 83,
    "atomicMass": "208.98040(1)",
    "group": 15,
    "period": 6,
    "block": "p",
    "category": "Metal",
    "meltingPoint": "271.3 °C",
    "boilingPoint": "1564 °C",
    "density": "9.78 g/cm³",
    "electronConfiguration": "[Xe] 4f14 5d10 6s2 6p3"
  },
  {
    "name": "Polônio",
    "symbol": "Po",
    "atomicNumber": 84,
    "atomicMass": "[209]",
    "group": 16,
    "period": 6,
    "block": "p",
    "category": "Semimetal",
    "meltingPoint": "254 °C",
    "boilingPoint": "962 °C",
    "density": "9.196 g/cm³",
    "electronConfiguration": "[Xe] 4f14 5d10 6s2 6p4"
  },
  {
    "name": "Astato",
    "symbol": "At",
    "atomicNumber": 85,
    "atomicMass": "[210]",
    "group": 17,
    "period": 6,
    "block": "p",
    "category": "Não Metal",
    "meltingPoint": "302 °C",
    "boilingPoint": "337 °C",
    "density": "7 g/cm³",
    "electronConfiguration": "[Xe] 4f14 5d10 6s2 6p5"
  },
  {
    "name": "Radônio",
    "symbol": "Rn",
    "atomicNumber": 86,
    "atomicMass": "[222]",
    "group": 18,
    "period": 6,
    "block": "p",
    "category": "Gás Nobre",
    "meltingPoint": "-71 °C",
    "boilingPoint": "-61.8 °C",
    "density": "9.73 g/L",
    "electronConfiguration": "[Xe] 4f14 5d10 6s2 6p6"
  },
  {
    "name": "Frâncio",
    "symbol": "Fr",
    "atomicNumber": 87,
    "atomicMass": "[223]",
    "group": 1,
    "period": 7,
    "block": "s",
    "category": "Metal Alcalino",
    "meltingPoint": "27 °C",
    "boilingPoint": "677 °C",
    "density": "1.87 g/cm³",
    "electronConfiguration": "[Rn] 7s1"
  },
  {
    "name": "Rádio",
    "symbol": "Ra",
    "atomicNumber": 88,
    "atomicMass": "[226]",
    "group": 2,
    "period": 7,
    "block": "s",
    "category": "Metal Alcalino-Terroso",
    "meltingPoint": "700 °C",
    "boilingPoint": "1737 °C",
    "density": "5 g/cm³",
    "electronConfiguration": "[Rn] 7s2"
  },
  {
    "name": "Actínio",
    "symbol": "Ac",
    "atomicNumber": 89,
    "atomicMass": "[227]",
    "group": 3,
    "period": 7,
    "block": "f",
    "category": "Actinídeo",
    "meltingPoint": "1050 °C",
    "boilingPoint": "3200 °C",
    "density": "10.07 g/cm³",
    "electronConfiguration": "[Rn] 6d1 7s2"
  },
  {
    "name": "Tório",
    "symbol": "Th",
    "atomicNumber": 90,
    "atomicMass": "232.03806(2)",
    "group": 3,
    "period": 7,
    "block": "f",
    "category": "Actinídeo",
    "meltingPoint": "1750 °C",
    "boilingPoint": "4790 °C",
    "density": "11.72 g/cm³",
    "electronConfiguration": "[Rn] 6d2 7s2"
  },
  {
    "name": "Protactínio",
    "symbol": "Pa",
    "atomicNumber": 91,
    "atomicMass": "231.03588(2)",
    "group": 3,
    "period": 7,
    "block": "f",
    "category": "Actinídeo",
    "meltingPoint": "1568 °C",
    "boilingPoint": "4027 °C",
    "density": "15.37 g/cm³",
    "electronConfiguration": "[Rn] 5f2 6d1 7s2"
  },
  {
    "name": "Urânio",
    "symbol": "U",
    "atomicNumber": 92,
    "atomicMass": "238.02891(3)",
    "group": 3,
    "period": 7,
    "block": "f",
    "category": "Actinídeo",
    "meltingPoint": "1132.3 °C",
    "boilingPoint": "4131 °C",
    "density": "18.95 g/cm³",
    "electronConfiguration": "[Rn] 5f3 6d1 7s2"
  },
  {
    "name": "Netúnio",
    "symbol": "Np",
    "atomicNumber": 93,
    "atomicMass": "[237]",
    "group": 3,
    "period": 7,
    "block": "f",
    "category": "Actinídeo",
    "meltingPoint": "640 °C",
    "boilingPoint": "3902 °C",
    "density": "20.45 g/cm³",
    "electronConfiguration": "[Rn] 5f4 6d1 7s2"
  },
  {
    "name": "Plutônio",
    "symbol": "Pu",
    "atomicNumber": 94,
    "atomicMass": "[244]",
    "group": 3,
    "period": 7,
    "block": "f",
    "category": "Actinídeo",
    "meltingPoint": "640 °C",
    "boilingPoint": "3230 °C",
    "density": "19.86 g/cm³",
    "electronConfiguration": "[Rn] 5f6 7s2"
  },
  {
    "name": "Amerício",
    "symbol": "Am",
    "atomicNumber": 95,
    "atomicMass": "[243]",
    "group": 3,
    "period": 7,
    "block": "f",
    "category": "Actinídeo",
    "meltingPoint": "994 °C",
    "boilingPoint": "2607 °C",
    "density": "13.67 g/cm³",
    "electronConfiguration": "[Rn] 5f7 7s2"
  },
  {
    "name": "Cúrio",
    "symbol": "Cm",
    "atomicNumber": 96,
    "atomicMass": "[247]",
    "group": 3,
    "period": 7,
    "block": "f",
    "category": "Actinídeo",
    "meltingPoint": "1340 °C",
    "boilingPoint": "3110 °C",
    "density": "13.51 g/cm³",
    "electronConfiguration": "[Rn] 5f7 6d1 7s2"
  },
  {
    "name": "Berquélio",
    "symbol": "Bk",
    "atomicNumber": 97,
    "atomicMass": "[247]",
    "group": 3,
    "period": 7,
    "block": "f",
    "category": "Actinídeo",
    "meltingPoint": "986 °C",
    "boilingPoint": "2627 °C",
    "density": "14.78 g/cm³",
    "electronConfiguration": "[Rn] 5f9 7s2"
  },
  {
    "name": "Califórnio",
    "symbol": "Cf",
    "atomicNumber": 98,
    "atomicMass": "[251]",
    "group": 3,
    "period": 7,
    "block": "f",
    "category": "Actinídeo",
    "meltingPoint": "900 °C",
    "boilingPoint": "1470 °C",
    "density": "15.1 g/cm³",
    "electronConfiguration": "[Rn] 5f10 7s2"
  },
  {
    "name": "Einstênio",
    "symbol": "Es",
    "atomicNumber": 99,
    "atomicMass": "[252]",
    "group": 3,
    "period": 7,
    "block": "f",
    "category": "Actinídeo",
    "meltingPoint": "860 °C",
    "boilingPoint": "996 °C",
    "density": "8.84 g/cm³",
    "electronConfiguration": "[Rn] 5f11 7s2"
  },
  {
    "name": "Férmio",
    "symbol": "Fm",
    "atomicNumber": 100,
    "atomicMass": "[257]",
    "group": 3,
    "period": 7,
    "block": "f",
    "category": "Actinídeo",
    "meltingPoint": "1527 °C",
    "boilingPoint": "unknown",
    "density": "unknown",
    "electronConfiguration": "[Rn] 5f12 7s2"
  },
  {
    "name": "Mendelévio",
    "symbol": "Md",
    "atomicNumber": 101,
    "atomicMass": "[258]",
    "group": 3,
    "period": 7,
    "block": "f",
    "category": "Actinídeo",
    "meltingPoint": "827 °C",
    "boilingPoint": "unknown",
    "density": "unknown",
    "electronConfiguration": "[Rn] 5f13 7s2"
  },
  {
    "name": "Nobélio",
    "symbol": "No",
    "atomicNumber": 102,
    "atomicMass": "[259]",
    "group": 3,
    "period": 7,
    "block": "f",
    "category": "Actinídeo",
    "meltingPoint": "827 °C",
    "boilingPoint": "unknown",
    "density": "unknown",
    "electronConfiguration": "[Rn] 5f14 7s2"
  },
  {
    "name": "Laurêncio",
    "symbol": "Lr",
    "atomicNumber": 103,
    "atomicMass": "[262]",
    "group": 3,
    "period": 7,
    "block": "d",
    "category": "Metal de Transição",
    "meltingPoint": "1627 °C",
    "boilingPoint": "unknown",
    "density": "unknown",
    "electronConfiguration": "[Rn] 5f14 7s2 7p1"
  },
  {
    "name": "Rutherfórdio",
    "symbol": "Rf",
    "atomicNumber": 104,
    "atomicMass": "[267]",
    "group": 4,
    "period": 7,
    "block": "d",
    "category": "Metal de Transição",
    "meltingPoint": "unknown",
    "boilingPoint": "unknown",
    "density": "unknown",
    "electronConfiguration": "[Rn] 5f14 6d2 7s2"
  },
  {
    "name": "Dúbnio",
    "symbol": "Db",
    "atomicNumber": 105,
    "atomicMass": "[270]",
    "group": 5,
    "period": 7,
    "block": "d",
    "category": "Metal de Transição",
    "meltingPoint": "unknown",
    "boilingPoint": "unknown",
    "density": "unknown",
    "electronConfiguration": "[Rn] 5f14 6d3 7s2"
  },
  {
    "name": "Seabórgio",
    "symbol": "Sg",
    "atomicNumber": 106,
    "atomicMass": "[271]",
    "group": 6,
    "period": 7,
    "block": "d",
    "category": "Metal de Transição",
    "meltingPoint": "unknown",
    "boilingPoint": "unknown",
    "density": "unknown",
    "electronConfiguration": "[Rn] 5f14 6d4 7s2"
  },
  {
    "name": "Bóhrio",
    "symbol": "Bh",
    "atomicNumber": 107,
    "atomicMass": "[270]",
    "group": 7,
    "period": 7,
    "block": "d",
    "category": "Metal de Transição",
    "meltingPoint": "unknown",
    "boilingPoint": "unknown",
    "density": "unknown",
    "electronConfiguration": "[Rn] 5f14 6d5 7s2"
  },
  {
    "name": "Hássio",
    "symbol": "Hs",
    "atomicNumber": 108,
    "atomicMass": "[277]",
    "group": 8,
    "period": 7,
    "block": "d",
    "category": "Metal de Transição",
    "meltingPoint": "unknown",
    "boilingPoint": "unknown",
    "density": "unknown",
    "electronConfiguration": "[Rn] 5f14 6d6 7s2"
  },
  {
    "name": "Meitnério",
    "symbol": "Mt",
    "atomicNumber": 109,
    "atomicMass": "[276]",
    "group": 9,
    "period": 7,
    "block": "d",
    "category": "Metal de Transição",
    "meltingPoint": "unknown",
    "boilingPoint": "unknown",
    "density": "unknown",
    "electronConfiguration": "[Rn] 5f14 6d7 7s2"
  },
  {
    "name": "Darmstádio",
    "symbol": "Ds",
    "atomicNumber": 110,
    "atomicMass": "[281]",
    "group": 10,
    "period": 7,
    "block": "d",
    "category": "Metal de Transição",
    "meltingPoint": "unknown",
    "boilingPoint": "unknown",
    "density": "unknown",
    "electronConfiguration": "[Rn] 5f14 6d9 7s1"
  },
  {
    "name": "Roentgênio",
    "symbol": "Rg",
    "atomicNumber": 111,
    "atomicMass": "[280]",
    "group": 11,
    "period": 7,
    "block": "d",
    "category": "Metal de Transição",
    "meltingPoint": "unknown",
    "boilingPoint": "unknown",
    "density": "unknown",
    "electronConfiguration": "[Rn] 5f14 6d10 7s1"
  },
  {
    "name": "Copernício",
    "symbol": "Cn",
    "atomicNumber": 112,
    "atomicMass": "[285]",
    "group": 12,
    "period": 7,
    "block": "d",
    "category": "Metal de Transição",
    "meltingPoint": "unknown",
    "boilingPoint": "unknown",
    "density": "unknown",
    "electronConfiguration": "[Rn] 5f14 6d10 7s2"
  },
  {
    "name": "Nihônio",
    "symbol": "Nh",
    "atomicNumber": 113,
    "atomicMass": "[284]",
    "group": 13,
    "period": 7,
    "block": "p",
    "category": "Metal",
    "meltingPoint": "unknown",
    "boilingPoint": "unknown",
    "density": "unknown",
    "electronConfiguration": "[Rn] 5f14 6d10 7s2 7p1"
  },
  {
    "name": "Fleróvio",
    "symbol": "Fl",
    "atomicNumber": 114,
    "atomicMass": "[289]",
    "group": 14,
    "period": 7,
    "block": "p",
    "category": "Metal",
    "meltingPoint": "unknown",
    "boilingPoint": "unknown",
    "density": "unknown",
    "electronConfiguration": "[Rn] 5f14 6d10 7s2 7p2"
  },
  {
    "name": "Moscóvio",
    "symbol": "Mc",
    "atomicNumber": 115,
    "atomicMass": "[288]",
    "group": 15,
    "period": 7,
    "block": "p",
    "category": "Metal",
    "meltingPoint": "unknown",
    "boilingPoint": "unknown",
    "density": "unknown",
    "electronConfiguration": "[Rn] 5f14 6d10 7s2 7p3"
  },
  {
    "name": "Livermório",
    "symbol": "Lv",
    "atomicNumber": 116,
    "atomicMass": "[293]",
    "group": 16,
    "period": 7,
    "block": "p",
    "category": "Semimetal",
    "meltingPoint": "unknown",
    "boilingPoint": "unknown",
    "density": "unknown",
    "electronConfiguration": "[Rn] 5f14 6d10 7s2 7p4"
  },
  {
    "name": "Tenessino",
    "symbol": "Ts",
    "atomicNumber": 117,
    "atomicMass": "[294]",
    "group": 17,
    "period": 7,
    "block": "p",
    "category": "Não Metal",
    "meltingPoint": "unknown",
    "boilingPoint": "unknown",
    "density": "unknown",
    "electronConfiguration": "[Rn] 5f14 6d10 7s2 7p5"
  },
  {
    "name": "Oganesónio",
    "symbol": "Og",
    "atomicNumber": 118,
    "atomicMass": "[294]",
    "group": 18,
    "period": 7,
    "block": "p",
    "category": "Gás Nobre",
    "meltingPoint": "unknown",
    "boilingPoint": "unknown",
    "density": "unknown",
    "electronConfiguration": "[Rn] 5f14 6d10 7s2 7p6"
  }
]
